MercuryDPM 1.0 name GenerateSmallK0Bed revision ea170ec1 repository https://bitbucket.org/mercurydpm/mercurydpm.git
dataFile    fileType ONE_FILE saveCount 1322 counter 42 lastSavedTimeStep 52906
fStatFile   fileType ONE_FILE saveCount 1322 counter 42 lastSavedTimeStep 52906
eneFile     fileType ONE_FILE saveCount 1322 counter 42 lastSavedTimeStep 52906
restartFile fileType ONE_FILE saveCount 1322 counter 42 lastSavedTimeStep 52906
statFile    fileType ONE_FILE saveCount 1322 counter 0
interactionFile fileType NO_FILE saveCount 0 counter 0
xMin 0 xMax 0.0025 yMin 0 yMax 0.0005 zMin 0 zMax 0.00175
timeStep 1.8901698085848e-06 time 0.100001323893113 ntimeSteps 52906 timeMax 0.1
systemDimensions 3 particleDimensions 3 gravity 0 0 -9.8 backgroundDrag 0 writeVTK 1 ONE_FILE NO_FILE 0 42 1 0 0 random  0 1103515245 12345 1073741824 607 273 784607267
Species 1
LinearViscoelasticFrictionSpecies id 0 density 2650 stiffness 4.25366736557537 dissipation 2.01849128920337e-05 slidingStiffness 1.23356353601686 slidingDissipation 5.85362473868976e-06 slidingFrictionCoefficient 0.5 slidingFrictionCoefficientStatic 0.5 rollingStiffness 1.70146694623015 rollingDissipation 8.07396515681347e-06 rollingFrictionCoefficient 0.5 rollingFrictionCoefficientStatic 0.5 torsionStiffness 0 torsionDissipation 0 torsionFrictionCoefficient 0 torsionFrictionCoefficientStatic 0
Walls 1
InfiniteWall id 0 indSpecies 0 position 0 0 0 orientation 0.707106781186548 0 0.707106781186548 0 velocity 0 0 0 angularVelocity 0 0 0 force -6.60836460760593e-08 5.39230231758895e-08 -1.85146750551503e-05 torque -4.29457379560217e-09 2.42457574861288e-08 4.38840572111202e-10
Boundaries 3
CubeInsertionBoundary id 0 maxFailed 1 volumeFlowRate 0 massInserted 1.89819255639192e-06 volumeInserted 7.16299077883745e-10 numberOfParticlesInserted 87 isActivated 1 psdCount 1 psd 11 8.83333333333333e-05 0 9.5e-05 0.00135172271946842 0.000101666666666667 0.0098285962313517 0.000108333333333333 0.0478549515777533 0.000115 0.158869711842759 0.000121666666666667 0.369940722434798 0.000128333333333333 0.63141100028467 0.000135 0.842482010876709 0.000141666666666667 0.953496771141715 0.000148333333333333 0.991523126488117 0.000155 1 initialVolume 7.125e-10 samplingInterval 0 variableCumulativeVolumeFlowRate 0 particleToCopy 1 BaseParticle id 0 indSpecies 0 position 0 0 0 orientation 1 0 0 0 velocity 0 0 0 angularVelocity 0 0 0 force 0 0 0 torque 0 0 0 radius 1 invMass 1 timeStamp 0 posMin 0 0 0 posMax 0.0025 0.0005 0.00175 velMin -0.005 0 -0.005 velMax 0.005 0 0
PeriodicBoundary id 1 normal 1 0 0 scaleFactor 1 distanceLeft 0 distanceRight 0.0025 shift 0.0025 0 0
PeriodicBoundary id 2 normal 0 1 0 scaleFactor 1 distanceLeft 0 distanceRight 0.0005 shift 0 0.0005 0
Particles 87
BaseParticle id 0 indSpecies 0 position 0.00110914000670741 0.00015541177759257 0.000821539745231633 orientation 0.991998022262269 -0.0758918855949418 -0.071367520435888 -0.0713233661251649 velocity 2.34544085788319e-05 3.22378194514246e-05 -1.96064805842851e-05 angularVelocity -0.242134211089516 0.168445718816526 -0.0375614650331437 force -1.82388823970122e-08 -2.21385160298641e-08 -4.80698749272647e-09 torque 2.88335149044341e-13 -3.05195419244776e-13 -9.16664947242624e-14 radius 0.000126811356476886 invMass 44176476.3576603 timeStamp 0
BaseParticle id 1 indSpecies 0 position 0.000946344947053865 0.000490969919190914 0.000677187203973373 orientation 0.967693964174308 0.175055523093013 0.0474845165140243 -0.175126172306354 velocity 2.58601256806015e-05 -1.85727067180156e-05 -0.000289055565430051 angularVelocity -1.14425770116348 -1.01074244943202 0.0293343870357622 force 4.00264073720579e-09 -1.36075641115425e-08 2.66936341085243e-08 torque -3.77469717665543e-13 3.47700386713416e-14 -2.92354099483624e-18 radius 0.000125965255715314 invMass 45072661.0131656 timeStamp 0
BaseParticle id 2 indSpecies 0 position 0.00150243734218347 0.000490202344038502 0.000125848362891533 orientation 0.989330162078076 0.0624436095944746 0.0835513016238066 -0.101714335372889 velocity -3.51619859174197e-05 0.000183839251151744 6.08542949490502e-05 angularVelocity -0.131713741584954 -0.207072658228954 0.120413249194362 force 3.66800324818477e-08 1.49689380492496e-08 1.15060491758301e-08 torque 4.11096723915155e-13 -6.01790092815522e-15 -1.01702103621838e-12 radius 0.000126252528216453 invMass 44765688.2342874 timeStamp 0
BaseParticle id 3 indSpecies 0 position 0.000524803431527567 0.000373089884848641 0.00014110381607593 orientation 0.998634336503948 0.0216506966965545 0.00644944883281812 0.0471074717813011 velocity 6.07112039745513e-05 -6.59036665120462e-05 -2.30207872850106e-05 angularVelocity -0.0368208683003745 -0.0298320166798478 0.29241988253191 force 6.39197084189948e-08 -6.28869837618357e-09 -2.59723208534391e-08 torque -2.84037928967075e-13 -4.6621229622871e-13 4.49293807031488e-13 radius 0.000141358046143001 invMass 31893627.3568135 timeStamp 0
BaseParticle id 4 indSpecies 0 position 0.000695379624002198 0.000314243330532268 0.000332442358143677 orientation 0.986173865762007 -0.134976149009254 -0.0792453196862891 -0.0544309194711021 velocity 5.00963854445305e-05 8.181451989925e-05 -1.54383882993794e-05 angularVelocity -0.367448209052671 -0.0955044825432683 0.121363297127711 force 2.20202618377625e-08 1.252027299907e-08 -2.71037672842728e-09 torque 7.29758773030542e-14 -6.82114672190295e-13 -1.30949696383681e-13 radius 0.000121687342116744 invMass 49995314.0280734 timeStamp 0
BaseParticle id 5 indSpecies 0 position 0.000463103542667902 6.80555888767e-05 0.000598936057935376 orientation 0.984343033865167 -0.159028051484286 0.0552095400993097 0.0522568388275921 velocity 3.3446973370929e-05 5.23640118819058e-05 -4.80624526871877e-06 angularVelocity 0.559231775772882 -0.297118274941961 -0.347973121289266 force -3.45904852560045e-08 -2.52900999371778e-08 -5.43295618240647e-09 torque -3.52202954395928e-13 3.26601959728922e-13 6.32317905706607e-13 radius 0.000119864867915705 invMass 52310609.8654035 timeStamp 0
BaseParticle id 6 indSpecies 0 position 8.61039370235642e-07 6.60782169693903e-05 0.000664143609086457 orientation 0.962910480614299 0.0922414106947335 0.194560409622399 0.162607427517164 velocity -2.24258798172932e-05 5.33269250802791e-05 -1.21492956022967e-05 angularVelocity -0.0490622094336953 -0.10344208956376 -0.24968353712514 force 9.27913529618018e-09 -7.11333818919587e-09 7.98368138250193e-10 torque 1.58936294406374e-15 8.49404269457866e-14 -4.67211839599015e-15 radius 0.000102677993303093 invMass 83221089.9635652 timeStamp 0
BaseParticle id 7 indSpecies 0 position 0.000305667757858882 0.000242657796646499 0.000736402397898596 orientation 0.988792532772287 -0.133982203727169 -0.0173767415413607 0.0635306624519429 velocity 8.47587874989225e-05 -7.24233200479198e-05 8.81938065511668e-06 angularVelocity 0.174989903723166 -0.123336235011733 0.473004997877606 force 2.27142561433015e-08 -4.34267676863985e-08 -2.44558349318809e-08 torque -6.4092424835659e-14 8.83064783341797e-14 4.48965470975154e-13 radius 0.000139023487371753 invMass 33527485.3412101 timeStamp 0
BaseParticle id 8 indSpecies 0 position 0.00189324296307428 0.000453716973033862 0.000741340471102697 orientation 0.967075954475137 -0.189179274805351 0.150731003352345 -0.0790914969419568 velocity 0.000153132008557004 -9.97536769585493e-05 1.18862720160442e-05 angularVelocity -0.0113023994779739 0.351063807374277 0.519041479448537 force -3.8065976049176e-08 3.6229973934245e-08 2.622384421155e-08 torque -4.29605982718175e-13 5.90551508322437e-13 -1.42349747420903e-12 radius 0.000127215387813171 invMass 43756903.1987781 timeStamp 0
BaseParticle id 9 indSpecies 0 position 0.00211865024348676 0.00030426690491191 0.000624019584977414 orientation 0.944853781461629 -0.193010992791532 -0.248874286518983 0.0897757084569965 velocity -9.97482666688709e-06 -1.22041215657071e-05 -0.000140211687800332 angularVelocity -0.260989463828569 -0.0384244811981102 0.147622007719751 force -1.21158586501093e-09 6.98395162448268e-10 1.16072572356685e-08 torque 3.94683061263135e-14 -1.72454779051183e-13 -1.88038198432481e-13 radius 0.00011190971645724 invMass 64277966.7465409 timeStamp 0
BaseParticle id 22 indSpecies 0 position 0.000190481120944508 0.000483749289263701 0.000772090218564859 orientation 0.911594851899329 0.340762937221194 0.108328006693357 0.202831184912156 velocity -3.32596615408284e-05 -0.000106434500907263 -4.13536028966994e-05 angularVelocity 0.340329569577203 0.0782083556804566 -0.140173001712984 force 3.44014503162808e-08 -1.32891665790585e-08 1.02872035281375e-08 torque 7.29733748496365e-13 4.95836907171788e-14 3.84651237493671e-13 radius 0.000130588640844942 invMass 40452867.4410827 timeStamp 1
BaseParticle id 38 indSpecies 0 position 0.00112442551189898 0.000364351725724506 0.000427083217311163 orientation 0.98016167094491 -0.0319753859042375 -0.194023199382638 -0.0248127307663421 velocity -0.000141158594744031 -3.40962195872916e-06 4.33363280901738e-05 angularVelocity -0.285709285749242 0.37158601237486 -0.26674066091569 force -1.09172922322679e-08 2.3851300648674e-09 -6.59902734871874e-09 torque 3.83783401765137e-14 4.09594032492071e-13 -3.02755391789698e-15 radius 0.000119828692543844 invMass 52358000.6964962 timeStamp 2
BaseParticle id 39 indSpecies 0 position 0.00105559807547934 0.000123860142639271 0.000324489081086791 orientation 0.958451451360856 0.136799406895628 -0.23695523562554 0.0806780885179945 velocity -0.000134294425429973 -0.000109511825246321 2.87174920158651e-05 angularVelocity -0.17759338100997 -0.136547634518109 -0.222820772415587 force -4.62043668195087e-08 -2.21278915114251e-08 -6.75380412282222e-10 torque 6.74642454168792e-15 4.42035714911518e-13 -3.75601873568864e-13 radius 0.000134850825660872 invMass 36737084.492861 timeStamp 2
BaseParticle id 40 indSpecies 0 position 7.54870689453786e-05 7.32828986348465e-05 0.000465400109648343 orientation 0.99392633928865 0.0552854674246586 -0.0904099082872115 -0.0296647542278613 velocity 3.28046996645682e-05 -1.86917101816979e-06 -1.4300238969248e-05 angularVelocity 0.224379148403818 0.0718049616507106 -0.229737141470179 force -9.49355481119143e-09 3.29141467404471e-09 -1.14138163037471e-08 torque 2.94901061316034e-13 1.27729933628723e-13 -6.69711884135414e-14 radius 0.000109847301722327 invMass 67966880.3559195 timeStamp 2
BaseParticle id 41 indSpecies 0 position 0.00213971537266568 0.000442283901454474 0.000891195883435416 orientation 0.780211367747638 -0.534929485860149 -0.323439277521995 -0.0225322114051401 velocity -9.89299524548274e-05 9.4946097063761e-05 -0.000249025988289036 angularVelocity -1.32558424501742 -0.883209135597282 0.556609725852724 force -1.46429306442908e-08 5.75990252934862e-09 -4.95752094992389e-09 torque -3.08565023441808e-13 -3.75136004742933e-13 2.19373161439896e-13 radius 0.000115859181883955 invMass 57926080.6089581 timeStamp 2
BaseParticle id 42 indSpecies 0 position 0.00155772827822836 0.000441198958144618 0.000363173129259177 orientation 0.961966033486162 0.166241953183169 -0.200120450431436 -0.0832872663728605 velocity -0.000501226421630446 3.28025211718828e-05 0.000101497980777199 angularVelocity 0.410969211412946 0.203424097396503 0.640172339100888 force -9.93941980980315e-10 -1.82632845735188e-08 1.12970826437404e-08 torque 9.15564169025763e-14 -2.04919315581862e-13 -7.92184798545974e-13 radius 0.000122576645770668 invMass 48915029.2741504 timeStamp 2
BaseParticle id 43 indSpecies 0 position 6.49332101368235e-05 0.000310028289082169 0.000612087667167507 orientation 0.977994781291163 0.170470545928735 0.022869754793947 0.118080375396056 velocity -0.000207128349537541 1.28889286874444e-05 6.815417758391e-05 angularVelocity 0.0303020151589765 0.471634832342043 0.508312130086891 force -7.20753144274997e-08 1.87204298300286e-08 -1.33550014126105e-08 torque -3.17323136540928e-13 -6.60204512715456e-13 8.16380311655297e-13 radius 0.000136612562417403 invMass 35334065.0770616 timeStamp 2
BaseParticle id 44 indSpecies 0 position 0.00103697160769183 0.000455244070304512 0.000933152447886818 orientation 0.906888631993186 0.278702614859343 0.226484806917816 -0.220414368559521 velocity 6.18153896608905e-05 7.83491967567037e-05 8.02108194226118e-05 angularVelocity -0.166474720775671 0.122010975237172 -0.0331081404773411 force -4.85117362716604e-09 -1.04706879238694e-08 1.32472785047075e-09 torque -1.64611337978589e-13 -6.75043794199922e-13 1.31274876562142e-13 radius 0.000113507152841399 invMass 61602143.8043566 timeStamp 2
BaseParticle id 45 indSpecies 0 position 0.00104508555069514 0.000358636355789704 0.00019270555640836 orientation 0.980975039564197 -0.0689805486087557 0.180773168062042 0.015834057422828 velocity -0.00014832994679616 -0.000195979429900244 0.000104434303915317 angularVelocity -0.361841697379146 -0.200133318554434 0.117213308285097 force 4.0981311028264e-09 -2.92969638339247e-09 4.81811276639096e-09 torque 4.44793082028575e-14 3.14819892654533e-13 8.92065063607151e-13 radius 0.000127888169082979 invMass 43069953.9400982 timeStamp 2
BaseParticle id 46 indSpecies 0 position 0.00212061348378914 0.000473604733679036 0.000126467057915154 orientation 0.875446899049174 0.0656243416352115 -0.375213930890179 0.297490636484698 velocity -0.000275816649918475 -7.39191765304182e-06 -3.48302217948994e-05 angularVelocity -0.0915421806972529 0.0970621943062764 -0.821232734241268 force -5.18985526117172e-08 3.19797174016052e-08 3.27011035109038e-08 torque -1.49424102825899e-13 4.75308973333443e-13 -1.64356497876369e-12 radius 0.000126833747850366 invMass 44153083.5924385 timeStamp 2
BaseParticle id 47 indSpecies 0 position 0.00145616310769653 0.000243222120207691 0.00016263989678639 orientation 0.958821525766477 -0.214943235962217 0.165010499398758 -0.0850424725011437 velocity 7.82840397181564e-05 6.71822315423023e-05 0.00017573291266629 angularVelocity 0.0726310764927887 0.0474783633282255 0.566159473959651 force 1.66601792707808e-08 1.76724092212034e-08 -2.55789194470258e-08 torque 5.51652215535571e-13 -2.4723997931792e-13 -5.69135758748536e-13 radius 0.000127797026370234 invMass 43162169.9992784 timeStamp 2
BaseParticle id 48 indSpecies 0 position 0.0016921448075084 0.000408150391861273 0.000891508511675547 orientation 0.99316340325779 0.0601909032890108 0.0159475624936252 0.0987379604871832 velocity 0.000109436632076094 -8.07493990097357e-05 5.45801923053435e-05 angularVelocity 0.116719138808451 0.603115230278636 0.212219837424564 force 3.17223224427799e-08 -2.46194667097918e-08 1.98015633074007e-08 torque -4.61517615243003e-13 1.38958115553624e-12 -4.55395523581425e-15 radius 0.000126198631029623 invMass 44823068.6170119 timeStamp 2
BaseParticle id 79 indSpecies 0 position 0.000637419300149302 0.0001086461196573 0.000120439138268335 orientation 0.984604300002994 0.134691822717496 0.111012871096642 -0.00941423175476326 velocity 2.72812918203451e-05 -6.6352490660762e-05 2.99357710547947e-06 angularVelocity -0.0697163212589773 -0.0919838716763548 0.149096141123865 force 1.07051639174993e-08 -1.8032834834176e-08 -8.09863208177541e-09 torque -3.11906768999389e-14 -2.33287643314988e-13 -1.33900799750316e-15 radius 0.000120574620389893 invMass 51392270.7064271 timeStamp 3
BaseParticle id 80 indSpecies 0 position 0.000840978204560308 0.000165486491894383 0.000473110322724639 orientation 0.980780035618698 -0.159573364001022 0.096300603399441 -0.057732633909145 velocity -6.51906066879803e-05 0.000138124363222268 7.59827918665997e-05 angularVelocity -0.327205093360282 -0.180725336122616 -0.389907914590737 force -2.65736188454398e-08 -8.46408440796987e-09 2.72271809024042e-08 torque 1.42395550213117e-14 1.41808279172586e-13 -1.08434566182626e-12 radius 0.000129577977150828 invMass 41406824.8372762 timeStamp 3
BaseParticle id 81 indSpecies 0 position 0.00146090300944418 0.000102096268167957 0.000516505369794144 orientation 0.975810399041625 -0.0458133299838208 -0.126687544297825 0.172178599244518 velocity -0.000308335998567486 3.44022265672085e-05 0.000179168432841576 angularVelocity -0.292516612827853 0.700918824453859 -0.460745808767381 force 6.18492035276339e-09 5.69913432974848e-09 -1.16298715686872e-08 torque -2.97917224130659e-13 4.44969293695605e-14 -3.87217035621509e-13 radius 0.000119910669305469 invMass 52250690.6701058 timeStamp 3
BaseParticle id 82 indSpecies 0 position 0.00131063451707964 0.000229189193626897 0.00069364756694736 orientation 0.972974860312101 0.0351814679376241 -0.198964899331489 -0.111781726361744 velocity 9.63810652384295e-06 -2.36818350350938e-05 -3.71651891772822e-05 angularVelocity 0.135296662815764 -0.167925204584807 0.191869718143545 force -1.16387703082827e-08 6.51562886580389e-09 3.08376075581363e-08 torque 1.73856609397079e-12 1.02606934652018e-13 -1.06927495541922e-13 radius 0.000123051629989238 invMass 48350771.0348498 timeStamp 3
BaseParticle id 83 indSpecies 0 position 0.000698086317186668 7.15517792826773e-05 0.00070789476499248 orientation 0.915541167854311 -0.197526367944997 0.326665575482741 -0.126717424709273 velocity -5.863218628327e-05 -0.000103726687807116 -2.13740062354173e-05 angularVelocity 0.187865760026271 -0.395958451648283 -0.868539876076889 force -1.78378319942591e-08 1.78540541612616e-08 6.94545798869289e-10 torque -2.99035958437985e-13 1.08518566410366e-12 2.33327650473888e-13 radius 0.00013045923500111 invMass 40573365.5813398 timeStamp 3
BaseParticle id 84 indSpecies 0 position 0.00233113548506729 0.000388766636773399 0.000563840682544803 orientation 0.987324290435686 0.0457778910467319 -0.0557133645029681 -0.141390067624082 velocity -8.9310433775041e-05 -0.000110798155570925 1.89848733414644e-05 angularVelocity 0.477014638997614 -0.257525303302234 -0.179360112931667 force 4.44684626432304e-08 1.8854286733787e-08 3.93849443641257e-09 torque -4.70935914197112e-13 7.45100471272999e-13 -3.25188321183979e-13 radius 0.000109816149237246 invMass 68024739.0026023 timeStamp 3
BaseParticle id 85 indSpecies 0 position 0.00195118605958762 0.000174901235332809 0.000123639078194159 orientation 0.991797054082997 -0.0859506234449819 -0.0472489684707524 0.0819672423603327 velocity 0.000131436067291481 -1.70013734294946e-05 0.000131488283853524 angularVelocity 0.13157368721318 -0.280581415046602 -0.482267650847099 force 1.82548804685891e-07 -1.93631479755031e-08 -7.24593159246848e-08 torque -1.66227415965598e-13 -2.28981706300314e-13 -2.55181020802267e-13 radius 0.000124033015026812 invMass 47212132.1905455 timeStamp 3
BaseParticle id 86 indSpecies 0 position 0.000653844793966228 2.30712851201253e-06 0.000474083976743255 orientation 0.891245920188113 -0.372642850571287 0.215978584269886 0.142025585029336 velocity -8.80539580082166e-06 6.86021589433873e-05 -1.6709091615304e-05 angularVelocity 0.207789873769763 -0.120903567084289 0.023547664497635 force -2.79607049629307e-08 7.12345218709497e-09 6.45572576467691e-09 torque -1.14549908073839e-14 -2.12779395195491e-13 5.0187461506224e-13 radius 0.000117473074180167 invMass 55571294.6362468 timeStamp 3
BaseParticle id 87 indSpecies 0 position 0.000127101648030834 0.000186749003154917 0.000134092686704942 orientation 0.976329935373321 0.169042460527135 -0.0882151942314982 -0.102091054160281 velocity 7.71415677081938e-05 1.58196625444472e-06 -2.08117143299188e-05 angularVelocity -0.315640038885764 0.0882595005806895 -0.790451323448144 force -1.01486572846505e-07 2.81285077584306e-08 3.42979819159183e-08 torque 2.71437397729728e-13 5.41821725604834e-13 2.54092197574761e-12 radius 0.000134361584506969 invMass 37139851.800936 timeStamp 3
BaseParticle id 131 indSpecies 0 position 0.00211664682485084 2.72467168057882e-05 0.000675647103802427 orientation 0.978020743824818 -0.207396141905739 0.00192865958244247 0.0214136695402499 velocity 2.90816641160041e-05 -3.02116865087377e-05 -0.000261833192707308 angularVelocity -0.213442330310233 0.285649260308783 0.19415485196231 force -1.19382709182675e-08 4.64330542560697e-10 -2.02484666124465e-09 torque -2.72072714730488e-13 7.27566121668263e-14 -3.42747849682737e-13 radius 0.000117010879065565 invMass 56232422.1323517 timeStamp 4
BaseParticle id 264 indSpecies 0 position 0.00239460740951884 0.000477360170183276 0.0008665564495216 orientation 0.973671093312842 0.171777994234636 -0.148957450150421 -0.0163890447673345 velocity -2.45507708156375e-05 9.4034798144637e-05 4.40718922253133e-05 angularVelocity 0.412024999340429 -0.429218575702718 -0.0941795659607461 force 4.86179310904653e-09 7.10514359167025e-09 4.09535215817974e-09 torque -9.68871518233918e-13 -6.1212749933983e-13 1.88512053143308e-13 radius 0.000142649660116296 invMass 31035110.2903229 timeStamp 7
BaseParticle id 265 indSpecies 0 position 0.000198919621065366 0.000321147349972479 0.000345072636242877 orientation 0.9832846780304 0.0854183261798402 0.139839773884651 -0.0793712110476923 velocity 5.05546547032248e-05 4.17927343954007e-05 -3.0973939117468e-05 angularVelocity 0.198688348897917 0.251122265873618 0.394505980604808 force -2.57949369045508e-08 3.18570455226386e-09 2.20821537960997e-08 torque -2.19697997626797e-13 7.88045863959934e-13 -1.08663761711887e-12 radius 0.000126078398114806 invMass 44951425.6372984 timeStamp 7
BaseParticle id 266 indSpecies 0 position 0.000492015483933474 0.000165711816763898 0.000366520587350167 orientation 0.981256789515523 0.184412913595202 -0.0133839249343918 -0.054294206710912 velocity 0.000143287263352543 -1.83576031647964e-06 -4.2998995980628e-05 angularVelocity -0.0213825491306126 -0.0144696659120277 0.172118557459051 force 3.60515894047273e-08 2.5093528692298e-08 -6.94342450381481e-08 torque -1.64147862428058e-13 -1.37123896586024e-12 -3.09946255746655e-13 radius 0.000132476660533986 invMass 38747831.3726022 timeStamp 7
BaseParticle id 267 indSpecies 0 position 0.00161554490532505 0.000204717606075005 0.000362952297448165 orientation 0.958954226955257 0.104701262230248 -0.0470080513634437 -0.25929650865187 velocity -0.000265341014696657 -4.45819537584205e-05 -0.00012422403819826 angularVelocity 0.147774274641431 -0.443974216965035 0.931290050380009 force 1.37455136532532e-10 -5.09731124818317e-09 -1.38555100029267e-08 torque 1.01896856462548e-13 -2.6662750254456e-13 2.21907190233615e-13 radius 0.000121011074378345 invMass 50838200.1299109 timeStamp 7
BaseParticle id 320 indSpecies 0 position 0.00193242222306042 0.000166006912162051 0.000620747215217934 orientation 0.968378755969453 -0.140601696835378 -0.203285652141615 -0.0338923511640257 velocity -1.36662317234048e-05 -6.75869081259335e-05 -3.85879437967963e-05 angularVelocity 0.263793630305774 0.386965033492782 0.112331753063574 force -8.95924356870702e-09 5.52621660637978e-09 -3.24495291206394e-09 torque 1.55046815417292e-13 -1.45023703913011e-13 3.51557107796925e-14 radius 0.000120104406505867 invMass 51998245.7527118 timeStamp 8
BaseParticle id 851 indSpecies 0 position 0.002147388698017 0.000400257703344314 0.000387016651758639 orientation 0.98269030841614 0.049668240380065 0.106834498454509 -0.142965777662043 velocity 6.12692871975016e-05 4.57190140311055e-05 -3.67952836524396e-05 angularVelocity -0.294388969631825 0.211902678192632 -0.569186477058226 force 5.85375751425869e-08 1.46862429403293e-08 2.59449376167094e-08 torque -6.60129267907179e-13 -9.91786318113881e-13 1.64265612585459e-13 radius 0.000145468229403805 invMass 29265844.3494799 timeStamp 18
BaseParticle id 960 indSpecies 0 position 0.000818465875549325 0.000273012310451181 0.000123902632854404 orientation 0.987965162018835 -0.034110713404387 0.0504434063821389 0.142185655467447 velocity -5.13463287887516e-05 -9.44170235644301e-05 -6.31163176149329e-06 angularVelocity -0.0264006424645545 -0.0960977284962162 -0.243788043511455 force -2.51874537021298e-09 -2.53205785260787e-08 -7.57613522040536e-09 torque -6.5648698736143e-14 1.42488845351238e-14 4.61662686608976e-14 radius 0.000124051462747711 invMass 47191072.5422815 timeStamp 20
BaseParticle id 1071 indSpecies 0 position 0.00171850002873298 9.83808377527726e-05 0.000547728138778037 orientation 0.978664972279863 -0.191496834584257 0.0692004386904365 -0.027479695444374 velocity -9.84825128414564e-05 2.60536985236708e-08 -5.39505674714268e-05 angularVelocity -0.0943931411107637 0.327929979242124 0.0725693277143913 force -9.86279257638707e-09 1.14531251264151e-09 -3.44994787387608e-09 torque 1.7105044743464e-13 -1.1911834339504e-14 -1.42112613284925e-13 radius 0.000115944264480669 invMass 57798651.6512556 timeStamp 22
BaseParticle id 1072 indSpecies 0 position 0.00156803706931136 6.94585722792041e-05 0.000738263170343102 orientation 0.986702705697379 -0.145825850045951 -0.0705679846059644 0.0131434994008429 velocity -1.59880333743665e-05 2.36440190949643e-07 7.03177592075735e-05 angularVelocity 0.0779704688448792 0.357809831577044 -0.0456537330190317 force -9.03204729400476e-10 -1.37051151635948e-08 1.28845362684887e-08 torque 1.33209346261078e-13 9.30103966151233e-14 -2.8889226727687e-13 radius 0.000128603237882608 invMass 42355499.4740715 timeStamp 22
BaseParticle id 1130 indSpecies 0 position 0.000251019073434506 6.03577340652093e-05 0.000317259509776897 orientation 0.990030547830631 -0.0266158901843688 -0.0983892822491883 -0.0972144942401262 velocity 7.09143471797885e-05 4.52825819675102e-05 -1.86313003821956e-05 angularVelocity -0.109521400267454 0.000992943520312272 -0.0504585587782537 force -1.92738017859079e-08 -1.81805302314933e-09 -1.93362736301546e-08 torque 1.02858555778532e-13 3.30569007154137e-13 -3.74655280119404e-14 radius 0.000120407296936734 invMass 51606819.6839301 timeStamp 23
BaseParticle id 1189 indSpecies 0 position 0.00235878258848386 0.000349094211160604 0.000122781664490625 orientation 0.996015500379023 -0.0416846904414582 -0.0487364542781849 -0.061969892786048 velocity -0.000108376594598148 -0.000202461671700019 -5.61210933144454e-06 angularVelocity 0.0403927545605168 -0.209823320961874 -1.27597085424993 force -1.73571925727537e-08 -1.85915911955909e-08 -2.68800326202436e-08 torque 1.37396454890576e-13 3.91175037591466e-14 3.28010075064797e-13 radius 0.000123186466680928 invMass 48192174.2809008 timeStamp 24
BaseParticle id 1861 indSpecies 0 position 0.0024337741219337 0.000262486607839129 0.00036620827203858 orientation 0.99263975370927 -0.016852291068171 -0.0161088947466556 -0.118839484817949 velocity -0.000132160620575467 -4.01621722157826e-05 -5.02712592224185e-06 angularVelocity -0.115485415599978 -0.229052622846898 0.541858627059708 force -1.43503079570292e-08 -1.18961131948421e-08 -2.26625494428514e-08 torque -4.80742320363006e-13 4.27734210088653e-13 -1.23759015332338e-12 radius 0.000146211667979911 invMass 28821688.6319976 timeStamp 35
BaseParticle id 2054 indSpecies 0 position 0.000766491378723173 0.000102346051044392 0.000947619676229219 orientation 0.823363985736825 -0.558796173001207 0.0878893188360841 -0.045760809272833 velocity -8.28293641955634e-05 -5.93078832173518e-05 -6.12850079498359e-05 angularVelocity 0.155328061935948 -0.419341033407983 0.134402948434778 force 2.32694502935356e-08 2.75391738401508e-08 -1.03359102256987e-08 torque -2.84867879281646e-13 7.78899869925148e-13 -4.0368042553612e-13 radius 0.00012077188433569 invMass 51140855.5919743 timeStamp 38
BaseParticle id 2120 indSpecies 0 position 0.000445779116966183 0.000457860870862982 0.000823810745760618 orientation 0.879010039061157 -0.263966115425178 0.388925613208217 -0.0800006782949863 velocity -6.61949718876324e-05 -8.38571600792412e-05 -5.44710735106818e-05 angularVelocity -0.0661991148440689 -0.268668141214102 0.277698972906012 force 4.37664036087739e-08 6.24596465130534e-09 1.32412051387153e-08 torque -1.32171250944004e-13 3.50715609188942e-13 -1.08028323658589e-13 radius 0.000131209330679938 invMass 39881488.2555628 timeStamp 39
BaseParticle id 2451 indSpecies 0 position 0.00173901317307148 0.000407148933977162 0.000164818166049174 orientation 0.987358265369503 0.144415335095486 0.0650530195359951 0.00599761994738992 velocity 0.00114813099082407 0.000173646545638084 -0.00079577123361014 angularVelocity 1.97615853543402 -5.7837789873198 1.23798527386758 force -8.68054453051457e-08 1.58051034365296e-08 -3.98222968800734e-08 torque 4.5585093333067e-12 3.76081541036527e-12 3.0731659083876e-12 radius 0.000125454026760708 invMass 45625926.8475143 timeStamp 44
BaseParticle id 2519 indSpecies 0 position 0.00143827320756635 0.000175112823363156 0.000939652978073825 orientation 0.951282607863425 0.0469149218878901 0.303504312089781 0.0273042601753503 velocity -6.74564662124295e-05 5.70694334379549e-05 3.18962051380881e-05 angularVelocity -0.0494556806889819 -0.279582602403172 -0.481817759079969 force -8.95052096933358e-09 3.2666966786307e-09 4.27490086386428e-08 torque -2.94350120344826e-13 3.16502581860749e-13 -1.94112356382165e-13 radius 0.000133291678149876 invMass 38041392.8111112 timeStamp 45
BaseParticle id 2520 indSpecies 0 position 0.000552171792493738 0.000255236649984435 0.000752844338901262 orientation 0.972137506984949 0.121056808029021 -0.0549576843422909 0.193063641513999 velocity 5.28316133528245e-05 -1.87959458250647e-05 8.69751210655953e-06 angularVelocity -0.0772696924833607 0.00708330522857612 0.192626888834575 force 5.74596686947751e-10 1.20350649494025e-09 7.52196239253391e-09 torque 1.03809850694102e-13 -3.13946935817322e-14 -9.40270205200315e-15 radius 0.000108408333161594 invMass 70709459.2349673 timeStamp 45
BaseParticle id 3280 indSpecies 0 position 0.000759719863999893 0.000320257723970004 0.000661520605263596 orientation 0.976064088115215 -0.175598371708558 -0.122636612454082 -0.0377408138611932 velocity -1.30828271790286e-05 0.000102504942050114 2.79634232636367e-05 angularVelocity -0.00978449752371034 0.110884797222944 0.147705193470203 force -9.88949662737516e-09 8.72664350875255e-09 1.07027748046297e-08 torque -8.78231430760553e-14 2.68000763800081e-13 -2.97711467733155e-13 radius 0.000127542823128715 invMass 43420761.8776983 timeStamp 56